% Model:              testDistributedSweep_solution.mph
% Version:            COMSOL 6.0.0.405
% Date:               Oct 29 2023, 15:50
% Dimension:          1
% Nodes:              64
% Expressions:        22
% Description:        Dependent variable u
% X             u @ t=0, offset=0 u @ t=0.1, offset=0 u @ t=0.2, offset=0 u @ t=0.3, offset=0 u @ t=0.4, offset=0 u @ t=0.5, offset=0 u @ t=0.6, offset=0 u @ t=0.7, offset=0 u @ t=0.8, offset=0 u @ t=0.9, offset=0 u @ t=1, offset=0 u @ t=0, offset=1.5708 u @ t=0.1, offset=1.5708 u @ t=0.2, offset=1.5708 u @ t=0.3, offset=1.5708 u @ t=0.4, offset=1.5708 u @ t=0.5, offset=1.5708 u @ t=0.6, offset=1.5708 u @ t=0.7, offset=1.5708 u @ t=0.8, offset=1.5708 u @ t=0.9, offset=1.5708 u @ t=1, offset=1.5708
0.049087        1.0491         1.0444         1.0402         1.0364         1.0329         1.0298         1.0269         1.0244         1.0220         1.0199         1.0181         1.9988         1.9037         1.8177         1.7399         1.6695         1.6058         1.5481         1.4960         1.4488         1.4061         1.3674
0.14726         1.1467         1.1328         1.1201         1.1087         1.0984         1.0890         1.0805         1.0729         1.0659         1.0597         1.0540         1.9892         1.8950         1.8099         1.7328         1.6631         1.6000         1.5429         1.4912         1.4445         1.4022         1.3639
0.24544         1.2430         1.2199         1.1989         1.1800         1.1629         1.1474         1.1334         1.1207         1.1092         1.0988         1.0894         1.9700         1.8777         1.7942         1.7186         1.6502         1.5884         1.5324         1.4817         1.4359         1.3944         1.3569
0.34361         1.3369         1.3048         1.2758         1.2496         1.2258         1.2043         1.1849         1.1673         1.1514         1.1370         1.1239         1.9415         1.8519         1.7709         1.6975         1.6311         1.5711         1.5167         1.4676         1.4231         1.3828         1.3464
0.44179         1.4276         1.3869         1.3501         1.3167         1.2866         1.2593         1.2346         1.2123         1.1921         1.1738         1.1573         1.9040         1.8180         1.7401         1.6697         1.6060         1.5483         1.4961         1.4489         1.4062         1.3675         1.3326
0.53996         1.5141         1.4652         1.4209         1.3809         1.3446         1.3118         1.2821         1.2553         1.2310         1.2090         1.1891         1.8577         1.7761         1.7022         1.6354         1.5750         1.5202         1.4707         1.4259         1.3854         1.3487         1.3155
0.63814         1.5957         1.5390         1.4877         1.4413         1.3993         1.3613         1.3269         1.2958         1.2677         1.2422         1.2191         1.8032         1.7268         1.6576         1.5950         1.5384         1.4872         1.4408         1.3989         1.3609         1.3266         1.2955
0.73631         1.6716         1.6077         1.5498         1.4975         1.4502         1.4073         1.3686         1.3335         1.3018         1.2730         1.2471         1.7410         1.6704         1.6066         1.5489         1.4967         1.4494         1.4066         1.3679         1.3329         1.3012         1.2726
0.83449         1.7410         1.6704         1.6066         1.5489         1.4967         1.4494         1.4066         1.3679         1.3329         1.3012         1.2726         1.6716         1.6077         1.5498         1.4975         1.4502         1.4073         1.3686         1.3335         1.3018         1.2730         1.2471
0.93266         1.8032         1.7268         1.6576         1.5950         1.5384         1.4872         1.4408         1.3989         1.3609         1.3266         1.2955         1.5957         1.5390         1.4877         1.4413         1.3993         1.3613         1.3269         1.2958         1.2677         1.2422         1.2191
1.0308          1.8577         1.7761         1.7022         1.6354         1.5750         1.5202         1.4707         1.4259         1.3854         1.3487         1.3155         1.5141         1.4652         1.4209         1.3809         1.3446         1.3118         1.2821         1.2553         1.2310         1.2090         1.1891
1.1290          1.9040         1.8180         1.7401         1.6697         1.6060         1.5483         1.4961         1.4489         1.4062         1.3675         1.3326         1.4276         1.3869         1.3501         1.3167         1.2866         1.2593         1.2346         1.2123         1.1921         1.1738         1.1573
1.2272          1.9415         1.8519         1.7709         1.6975         1.6311         1.5711         1.5167         1.4676         1.4231         1.3828         1.3464         1.3369         1.3048         1.2758         1.2496         1.2258         1.2043         1.1849         1.1673         1.1514         1.1370         1.1239
1.3254          1.9700         1.8777         1.7942         1.7186         1.6502         1.5884         1.5324         1.4817         1.4359         1.3944         1.3569         1.2430         1.2199         1.1989         1.1800         1.1629         1.1474         1.1334         1.1207         1.1092         1.0988         1.0894
1.4235          1.9892         1.8950         1.8099         1.7328         1.6631         1.6000         1.5429         1.4912         1.4445         1.4022         1.3639         1.1467         1.1328         1.1201         1.1087         1.0984         1.0890         1.0805         1.0729         1.0659         1.0597         1.0540
1.5217          1.9988         1.9037         1.8177         1.7399         1.6695         1.6058         1.5481         1.4960         1.4488         1.4061         1.3674         1.0491         1.0444         1.0402         1.0364         1.0329         1.0298         1.0269         1.0244         1.0220         1.0199         1.0181
1.6199          1.9988         1.9037         1.8177         1.7399         1.6695         1.6058         1.5481         1.4960         1.4488         1.4061         1.3674         0.95093        0.95560        0.95983        0.96365        0.96711        0.97024        0.97307        0.97563        0.97795        0.98005        0.98195
1.7181          1.9892         1.8950         1.8099         1.7328         1.6631         1.6000         1.5429         1.4912         1.4445         1.4022         1.3639         0.85327        0.86723        0.87987        0.89130        0.90164        0.91100        0.91947        0.92714        0.93407        0.94034        0.94602
1.8162          1.9700         1.8777         1.7942         1.7186         1.6502         1.5884         1.5324         1.4817         1.4359         1.3944         1.3569         0.75702        0.78014        0.80106        0.82000        0.83713        0.85263        0.86665        0.87934        0.89082        0.90121        0.91061
1.9144          1.9415         1.8519         1.7709         1.6975         1.6311         1.5711         1.5167         1.4676         1.4231         1.3828         1.3464         0.66311        0.69517        0.72418        0.75043        0.77418        0.79567        0.81511        0.83271        0.84863        0.86303        0.87607
2.0126          1.9040         1.8180         1.7401         1.6697         1.6060         1.5483         1.4961         1.4489         1.4062         1.3675         1.3326         0.57244        0.61313        0.64995        0.68326        0.71340        0.74067        0.76535        0.78768        0.80789        0.82617        0.84271
2.1108          1.8577         1.7761         1.7022         1.6354         1.5750         1.5202         1.4707         1.4259         1.3854         1.3487         1.3155         0.48590        0.53482        0.57909        0.61914        0.65539        0.68818        0.71785        0.74470        0.76900        0.79098        0.81087
2.2089          1.8032         1.7268         1.6576         1.5950         1.5384         1.4872         1.4408         1.3989         1.3609         1.3266         1.2955         0.40430        0.46099        0.51228        0.55869        0.60069        0.63869        0.67307        0.70418        0.73234        0.75781        0.78085
2.3071          1.7410         1.6704         1.6066         1.5489         1.4967         1.4494         1.4066         1.3679         1.3329         1.3012         1.2726         0.32844        0.39235        0.45017        0.50250        0.54984        0.59268        0.63144        0.66651        0.69825        0.72696        0.75295
2.4053          1.6716         1.6077         1.5498         1.4975         1.4502         1.4073         1.3686         1.3335         1.3018         1.2730         1.2471         0.25905        0.32956        0.39336        0.45109        0.50333        0.55059        0.59336        0.63206        0.66707        0.69875        0.72742
2.5035          1.5957         1.5390         1.4877         1.4413         1.3993         1.3613         1.3269         1.2958         1.2677         1.2422         1.2191         0.19679        0.27323        0.34239        0.40497        0.46159        0.51283        0.55919        0.60114        0.63910        0.67344        0.70452
2.6016          1.5141         1.4652         1.4209         1.3809         1.3446         1.3118         1.2821         1.2553         1.2310         1.2090         1.1891         0.14227        0.22390        0.29775        0.36458        0.42505        0.47976        0.52927        0.57407        0.61460        0.65127        0.68446
2.6998          1.4276         1.3869         1.3501         1.3167         1.2866         1.2593         1.2346         1.2123         1.1921         1.1738         1.1573         0.096011       0.18204        0.25988        0.33031        0.39404        0.45170        0.50388        0.55109        0.59381        0.63247        0.66744
2.7980          1.3369         1.3048         1.2758         1.2496         1.2258         1.2043         1.1849         1.1673         1.1514         1.1370         1.1239         0.058456       0.14806        0.22913        0.30249        0.36886        0.42893        0.48327        0.53244        0.57694        0.61720        0.65363
2.8962          1.2430         1.2199         1.1989         1.1800         1.1629         1.1474         1.1334         1.1207         1.1092         1.0988         1.0894         0.029969       0.12228        0.20581        0.28138        0.34977        0.41165        0.46764        0.51830        0.56414        0.60562        0.64315
2.9943          1.1467         1.1328         1.1201         1.1087         1.0984         1.0890         1.0805         1.0729         1.0659         1.0597         1.0540         0.010823       0.10496        0.19013        0.26720        0.33694        0.40003        0.45713        0.50879        0.55553        0.59783        0.63610
3.0925          1.0491         1.0444         1.0402         1.0364         1.0329         1.0298         1.0269         1.0244         1.0220         1.0199         1.0181         0.0012045      0.096252       0.18226        0.26007        0.33049        0.39420        0.45185        0.50401        0.55121        0.59392        0.63256
3.1907          0.95093        0.95560        0.95983        0.96365        0.96711        0.97024        0.97307        0.97563        0.97795        0.98005        0.98195        0.0012045      0.096252       0.18226        0.26007        0.33049        0.39420        0.45185        0.50401        0.55121        0.59392        0.63256
3.2889          0.85327        0.86723        0.87987        0.89130        0.90164        0.91100        0.91947        0.92714        0.93407        0.94034        0.94602        0.010823       0.10496        0.19013        0.26720        0.33694        0.40003        0.45713        0.50879        0.55553        0.59783        0.63610
3.3870          0.75702        0.78014        0.80106        0.82000        0.83713        0.85263        0.86665        0.87934        0.89082        0.90121        0.91061        0.029969       0.12228        0.20581        0.28138        0.34977        0.41165        0.46764        0.51830        0.56414        0.60562        0.64315
3.4852          0.66311        0.69517        0.72418        0.75043        0.77418        0.79567        0.81511        0.83271        0.84863        0.86303        0.87607        0.058456       0.14806        0.22913        0.30249        0.36886        0.42893        0.48327        0.53244        0.57694        0.61720        0.65363
3.5834          0.57244        0.61313        0.64995        0.68326        0.71340        0.74067        0.76535        0.78768        0.80789        0.82617        0.84271        0.096011       0.18204        0.25988        0.33031        0.39404        0.45170        0.50388        0.55109        0.59381        0.63247        0.66744
3.6816          0.48590        0.53482        0.57909        0.61914        0.65539        0.68818        0.71785        0.74470        0.76900        0.79098        0.81087        0.14227        0.22390        0.29775        0.36458        0.42505        0.47976        0.52927        0.57407        0.61460        0.65127        0.68446
3.7797          0.40430        0.46099        0.51228        0.55869        0.60069        0.63869        0.67307        0.70418        0.73234        0.75781        0.78085        0.19679        0.27323        0.34239        0.40497        0.46159        0.51283        0.55919        0.60114        0.63910        0.67344        0.70452
3.8779          0.32844        0.39235        0.45017        0.50250        0.54984        0.59268        0.63144        0.66651        0.69825        0.72696        0.75295        0.25905        0.32956        0.39336        0.45109        0.50333        0.55059        0.59336        0.63206        0.66707        0.69875        0.72742
3.9761          0.25905        0.32956        0.39336        0.45109        0.50333        0.55059        0.59336        0.63206        0.66707        0.69875        0.72742        0.32844        0.39235        0.45017        0.50250        0.54984        0.59268        0.63144        0.66651        0.69825        0.72696        0.75295
4.0743          0.19679        0.27323        0.34239        0.40497        0.46159        0.51283        0.55919        0.60114        0.63910        0.67344        0.70452        0.40430        0.46099        0.51228        0.55869        0.60069        0.63869        0.67307        0.70418        0.73234        0.75781        0.78085
4.1724          0.14227        0.22390        0.29775        0.36458        0.42505        0.47976        0.52927        0.57407        0.61460        0.65127        0.68446        0.48590        0.53482        0.57909        0.61914        0.65539        0.68818        0.71785        0.74470        0.76900        0.79098        0.81087
4.2706          0.096011       0.18204        0.25988        0.33031        0.39404        0.45170        0.50388        0.55109        0.59381        0.63247        0.66744        0.57244        0.61313        0.64995        0.68326        0.71340        0.74067        0.76535        0.78768        0.80789        0.82617        0.84271
4.3688          0.058456       0.14806        0.22913        0.30249        0.36886        0.42893        0.48327        0.53244        0.57694        0.61720        0.65363        0.66311        0.69517        0.72418        0.75043        0.77418        0.79567        0.81511        0.83271        0.84863        0.86303        0.87607
4.4670          0.029969       0.12228        0.20581        0.28138        0.34977        0.41165        0.46764        0.51830        0.56414        0.60562        0.64315        0.75702        0.78014        0.80106        0.82000        0.83713        0.85263        0.86665        0.87934        0.89082        0.90121        0.91061
4.5651          0.010823       0.10496        0.19013        0.26720        0.33694        0.40003        0.45713        0.50879        0.55553        0.59783        0.63610        0.85327        0.86723        0.87987        0.89130        0.90164        0.91100        0.91947        0.92714        0.93407        0.94034        0.94602
4.6633          0.0012045      0.096252       0.18226        0.26007        0.33049        0.39420        0.45185        0.50401        0.55121        0.59392        0.63256        0.95093        0.95560        0.95983        0.96365        0.96711        0.97024        0.97307        0.97563        0.97795        0.98005        0.98195
4.7615          0.0012045      0.096252       0.18226        0.26007        0.33049        0.39420        0.45185        0.50401        0.55121        0.59392        0.63256        1.0491         1.0444         1.0402         1.0364         1.0329         1.0298         1.0269         1.0244         1.0220         1.0199         1.0181
4.8597          0.010823       0.10496        0.19013        0.26720        0.33694        0.40003        0.45713        0.50879        0.55553        0.59783        0.63610        1.1467         1.1328         1.1201         1.1087         1.0984         1.0890         1.0805         1.0729         1.0659         1.0597         1.0540
4.9578          0.029969       0.12228        0.20581        0.28138        0.34977        0.41165        0.46764        0.51830        0.56414        0.60562        0.64315        1.2430         1.2199         1.1989         1.1800         1.1629         1.1474         1.1334         1.1207         1.1092         1.0988         1.0894
5.0560          0.058456       0.14806        0.22913        0.30249        0.36886        0.42893        0.48327        0.53244        0.57694        0.61720        0.65363        1.3369         1.3048         1.2758         1.2496         1.2258         1.2043         1.1849         1.1673         1.1514         1.1370         1.1239
5.1542          0.096011       0.18204        0.25988        0.33031        0.39404        0.45170        0.50388        0.55109        0.59381        0.63247        0.66744        1.4276         1.3869         1.3501         1.3167         1.2866         1.2593         1.2346         1.2123         1.1921         1.1738         1.1573
5.2524          0.14227        0.22390        0.29775        0.36458        0.42505        0.47976        0.52927        0.57407        0.61460        0.65127        0.68446        1.5141         1.4652         1.4209         1.3809         1.3446         1.3118         1.2821         1.2553         1.2310         1.2090         1.1891
5.3505          0.19679        0.27323        0.34239        0.40497        0.46159        0.51283        0.55919        0.60114        0.63910        0.67344        0.70452        1.5957         1.5390         1.4877         1.4413         1.3993         1.3613         1.3269         1.2958         1.2677         1.2422         1.2191
5.4487          0.25905        0.32956        0.39336        0.45109        0.50333        0.55059        0.59336        0.63206        0.66707        0.69875        0.72742        1.6716         1.6077         1.5498         1.4975         1.4502         1.4073         1.3686         1.3335         1.3018         1.2730         1.2471
5.5469          0.32844        0.39235        0.45017        0.50250        0.54984        0.59268        0.63144        0.66651        0.69825        0.72696        0.75295        1.7410         1.6704         1.6066         1.5489         1.4967         1.4494         1.4066         1.3679         1.3329         1.3012         1.2726
5.6450          0.40430        0.46099        0.51228        0.55869        0.60069        0.63869        0.67307        0.70418        0.73234        0.75781        0.78085        1.8032         1.7268         1.6576         1.5950         1.5384         1.4872         1.4408         1.3989         1.3609         1.3266         1.2955
5.7432          0.48590        0.53482        0.57909        0.61914        0.65539        0.68818        0.71785        0.74470        0.76900        0.79098        0.81087        1.8577         1.7761         1.7022         1.6354         1.5750         1.5202         1.4707         1.4259         1.3854         1.3487         1.3155
5.8414          0.57244        0.61313        0.64995        0.68326        0.71340        0.74067        0.76535        0.78768        0.80789        0.82617        0.84271        1.9040         1.8180         1.7401         1.6697         1.6060         1.5483         1.4961         1.4489         1.4062         1.3675         1.3326
5.9396          0.66311        0.69517        0.72418        0.75043        0.77418        0.79567        0.81511        0.83271        0.84863        0.86303        0.87607        1.9415         1.8519         1.7709         1.6975         1.6311         1.5711         1.5167         1.4676         1.4231         1.3828         1.3464
6.0377          0.75702        0.78014        0.80106        0.82000        0.83713        0.85263        0.86665        0.87934        0.89082        0.90121        0.91061        1.9700         1.8777         1.7942         1.7186         1.6502         1.5884         1.5324         1.4817         1.4359         1.3944         1.3569
6.1359          0.85327        0.86723        0.87987        0.89130        0.90164        0.91100        0.91947        0.92714        0.93407        0.94034        0.94602        1.9892         1.8950         1.8099         1.7328         1.6631         1.6000         1.5429         1.4912         1.4445         1.4022         1.3639
6.2341          0.95093        0.95560        0.95983        0.96365        0.96711        0.97024        0.97307        0.97563        0.97795        0.98005        0.98195        1.9988         1.9037         1.8177         1.7399         1.6695         1.6058         1.5481         1.4960         1.4488         1.4061         1.3674
